Here is a trace for simple wireless simulation

The nodes movement file is cbr1

The traffic flow between nodes is scence1

s -t 2.556838879 -Hs 1 -Hd -2 -Ni 1 -Nx 0.00 -Ny 0.00 -Nz 0.00 -Ne -1.000000 -Nl AGT -Nw --- -Ma 0 -Md 0 -Ms 0 -Mt 0 -Is 1.0 -Id 2.0 -It cbr -Il 512 -If 0 -Ii 0 -Iv 32 -Pn cbr -Pi 0 -Pf 0 -Po 0 
r -t 2.556838879 -Hs 1 -Hd -2 -Ni 1 -Nx 0.00 -Ny 0.00 -Nz 0.00 -Ne -1.000000 -Nl RTR -Nw --- -Ma 0 -Md 0 -Ms 0 -Mt 0 -Is 1.0 -Id 2.0 -It cbr -Il 512 -If 0 -Ii 0 -Iv 32 -Pn cbr -Pi 0 -Pf 0 -Po 0 
s -t 2.556838879 -Hs 1 -Hd -2 -Ni 1 -Nx 0.00 -Ny 0.00 -Nz 0.00 -Ne -1.000000 -Nl RTR -Nw --- -Ma 0 -Md 0 -Ms 0 -Mt 0 -Is 1.255 -Id -1.255 -It AODV -Il 48 -If 0 -Ii 0 -Iv 30 -P aodv -Pt 0x2 -Ph 1 -Pb 1 -Pd 2 -Pds 0 -Ps 1 -Pss 4 -Pc REQUEST 
r -t 2.557826879 -Hs 0 -Hd -2 -Ni 0 -Nx 0.00 -Ny 0.00 -Nz 0.00 -Ne -1.000000 -Nl RTR -Nw --- -Ma 0 -Md ffffffff -Ms 1 -Mt 800 -Is 1.255 -Id -1.255 -It AODV -Il 48 -If 0 -Ii 0 -Iv 30 -P aodv -Pt 0x2 -Ph 1 -Pb 1 -Pd 2 -Pds 0 -Ps 1 -Pss 4 -Pc REQUEST 
r -t 2.557826879 -Hs 2 -Hd -2 -Ni 2 -Nx 0.00 -Ny 0.00 -Nz 0.00 -Ne -1.000000 -Nl RTR -Nw --- -Ma 0 -Md ffffffff -Ms 1 -Mt 800 -Is 1.255 -Id -1.255 -It AODV -Il 48 -If 0 -Ii 0 -Iv 30 -P aodv -Pt 0x2 -Ph 1 -Pb 1 -Pd 2 -Pds 0 -Ps 1 -Pss 4 -Pc REQUEST 
r -t 2.557826879 -Hs 3 -Hd -2 -Ni 3 -Nx 0.00 -Ny 0.00 -Nz 0.00 -Ne -1.000000 -Nl RTR -Nw --- -Ma 0 -Md ffffffff -Ms 1 -Mt 800 -Is 1.255 -Id -1.255 -It AODV -Il 48 -If 0 -Ii 0 -Iv 30 -P aodv -Pt 0x2 -Ph 1 -Pb 1 -Pd 2 -Pds 0 -Ps 1 -Pss 4 -Pc REQUEST 
r -t 2.557826879 -Hs 4 -Hd -2 -Ni 4 -Nx 0.00 -Ny 0.00 -Nz 0.00 -Ne -1.000000 -Nl RTR -Nw --- -Ma 0 -Md ffffffff -Ms 1 -Mt 800 -Is 1.255 -Id -1.255 -It AODV -Il 48 -If 0 -Ii 0 -Iv 30 -P aodv -Pt 0x2 -Ph 1 -Pb 1 -Pd 2 -Pds 0 -Ps 1 -Pss 4 -Pc REQUEST 
r -t 2.557826879 -Hs 5 -Hd -2 -Ni 5 -Nx 0.00 -Ny 0.00 -Nz 0.00 -Ne -1.000000 -Nl RTR -Nw --- -Ma 0 -Md ffffffff -Ms 1 -Mt 800 -Is 1.255 -Id -1.255 -It AODV -Il 48 -If 0 -Ii 0 -Iv 30 -P aodv -Pt 0x2 -Ph 1 -Pb 1 -Pd 2 -Pds 0 -Ps 1 -Pss 4 -Pc REQUEST 
r -t 2.557826879 -Hs 6 -Hd -2 -Ni 6 -Nx 0.00 -Ny 0.00 -Nz 0.00 -Ne -1.000000 -Nl RTR -Nw --- -Ma 0 -Md ffffffff -Ms 1 -Mt 800 -Is 1.255 -Id -1.255 -It AODV -Il 48 -If 0 -Ii 0 -Iv 30 -P aodv -Pt 0x2 -Ph 1 -Pb 1 -Pd 2 -Pds 0 -Ps 1 -Pss 4 -Pc REQUEST 
r -t 2.557826879 -Hs 7 -Hd -2 -Ni 7 -Nx 0.00 -Ny 0.00 -Nz 0.00 -Ne -1.000000 -Nl RTR -Nw --- -Ma 0 -Md ffffffff -Ms 1 -Mt 800 -Is 1.255 -Id -1.255 -It AODV -Il 48 -If 0 -Ii 0 -Iv 30 -P aodv -Pt 0x2 -Ph 1 -Pb 1 -Pd 2 -Pds 0 -Ps 1 -Pss 4 -Pc REQUEST 
r -t 2.557826879 -Hs 8 -Hd -2 -Ni 8 -Nx 0.00 -Ny 0.00 -Nz 0.00 -Ne -1.000000 -Nl RTR -Nw --- -Ma 0 -Md ffffffff -Ms 1 -Mt 800 -Is 1.255 -Id -1.255 -It AODV -Il 48 -If 0 -Ii 0 -Iv 30 -P aodv -Pt 0x2 -Ph 1 -Pb 1 -Pd 2 -Pds 0 -Ps 1 -Pss 4 -Pc REQUEST 
r -t 2.557826879 -Hs 9 -Hd -2 -Ni 9 -Nx 0.00 -Ny 0.00 -Nz 0.00 -Ne -1.000000 -Nl RTR -Nw --- -Ma 0 -Md ffffffff -Ms 1 -Mt 800 -Is 1.255 -Id -1.255 -It AODV -Il 48 -If 0 -Ii 0 -Iv 30 -P aodv -Pt 0x2 -Ph 1 -Pb 1 -Pd 2 -Pds 0 -Ps 1 -Pss 4 -Pc REQUEST 
r -t 2.557826879 -Hs 10 -Hd -2 -Ni 10 -Nx 0.00 -Ny 0.00 -Nz 0.00 -Ne -1.000000 -Nl RTR -Nw --- -Ma 0 -Md ffffffff -Ms 1 -Mt 800 -Is 1.255 -Id -1.255 -It AODV -Il 48 -If 0 -Ii 0 -Iv 30 -P aodv -Pt 0x2 -Ph 1 -Pb 1 -Pd 2 -Pds 0 -Ps 1 -Pss 4 -Pc REQUEST 
r -t 2.557826879 -Hs 11 -Hd -2 -Ni 11 -Nx 0.00 -Ny 0.00 -Nz 0.00 -Ne -1.000000 -Nl RTR -Nw --- -Ma 0 -Md ffffffff -Ms 1 -Mt 800 -Is 1.255 -Id -1.255 -It AODV -Il 48 -If 0 -Ii 0 -Iv 30 -P aodv -Pt 0x2 -Ph 1 -Pb 1 -Pd 2 -Pds 0 -Ps 1 -Pss 4 -Pc REQUEST 
r -t 2.557826879 -Hs 12 -Hd -2 -Ni 12 -Nx 0.00 -Ny 0.00 -Nz 0.00 -Ne -1.000000 -Nl RTR -Nw --- -Ma 0 -Md ffffffff -Ms 1 -Mt 800 -Is 1.255 -Id -1.255 -It AODV -Il 48 -If 0 -Ii 0 -Iv 30 -P aodv -Pt 0x2 -Ph 1 -Pb 1 -Pd 2 -Pds 0 -Ps 1 -Pss 4 -Pc REQUEST 
r -t 2.557826879 -Hs 13 -Hd -2 -Ni 13 -Nx 0.00 -Ny 0.00 -Nz 0.00 -Ne -1.000000 -Nl RTR -Nw --- -Ma 0 -Md ffffffff -Ms 1 -Mt 800 -Is 1.255 -Id -1.255 -It AODV -Il 48 -If 0 -Ii 0 -Iv 30 -P aodv -Pt 0x2 -Ph 1 -Pb 1 -Pd 2 -Pds 0 -Ps 1 -Pss 4 -Pc REQUEST 
r -t 2.557826879 -Hs 14 -Hd -2 -Ni 14 -Nx 0.00 -Ny 0.00 -Nz 0.00 -Ne -1.000000 -Nl RTR -Nw --- -Ma 0 -Md ffffffff -Ms 1 -Mt 800 -Is 1.255 -Id -1.255 -It AODV -Il 48 -If 0 -Ii 0 -Iv 30 -P aodv -Pt 0x2 -Ph 1 -Pb 1 -Pd 2 -Pds 0 -Ps 1 -Pss 4 -Pc REQUEST 
r -t 2.557826879 -Hs 15 -Hd -2 -Ni 15 -Nx 0.00 -Ny 0.00 -Nz 0.00 -Ne -1.000000 -Nl RTR -Nw --- -Ma 0 -Md ffffffff -Ms 1 -Mt 800 -Is 1.255 -Id -1.255 -It AODV -Il 48 -If 0 -Ii 0 -Iv 30 -P aodv -Pt 0x2 -Ph 1 -Pb 1 -Pd 2 -Pds 0 -Ps 1 -Pss 4 -Pc REQUEST 
r -t 2.557826879 -Hs 16 -Hd -2 -Ni 16 -Nx 0.00 -Ny 0.00 -Nz 0.00 -Ne -1.000000 -Nl RTR -Nw --- -Ma 0 -Md ffffffff -Ms 1 -Mt 800 -Is 1.255 -Id -1.255 -It AODV -Il 48 -If 0 -Ii 0 -Iv 30 -P aodv -Pt 0x2 -Ph 1 -Pb 1 -Pd 2 -Pds 0 -Ps 1 -Pss 4 -Pc REQUEST 
r -t 2.557826879 -Hs 17 -Hd -2 -Ni 17 -Nx 0.00 -Ny 0.00 -Nz 0.00 -Ne -1.000000 -Nl RTR -Nw --- -Ma 0 -Md ffffffff -Ms 1 -Mt 800 -Is 1.255 -Id -1.255 -It AODV -Il 48 -If 0 -Ii 0 -Iv 30 -P aodv -Pt 0x2 -Ph 1 -Pb 1 -Pd 2 -Pds 0 -Ps 1 -Pss 4 -Pc REQUEST 
r -t 2.557826879 -Hs 18 -Hd -2 -Ni 18 -Nx 0.00 -Ny 0.00 -Nz 0.00 -Ne -1.000000 -Nl RTR -Nw --- -Ma 0 -Md ffffffff -Ms 1 -Mt 800 -Is 1.255 -Id -1.255 -It AODV -Il 48 -If 0 -Ii 0 -Iv 30 -P aodv -Pt 0x2 -Ph 1 -Pb 1 -Pd 2 -Pds 0 -Ps 1 -Pss 4 -Pc REQUEST 
r -t 2.557826879 -Hs 19 -Hd -2 -Ni 19 -Nx 0.00 -Ny 0.00 -Nz 0.00 -Ne -1.000000 -Nl RTR -Nw --- -Ma 0 -Md ffffffff -Ms 1 -Mt 800 -Is 1.255 -Id -1.255 -It AODV -Il 48 -If 0 -Ii 0 -Iv 30 -P aodv -Pt 0x2 -Ph 1 -Pb 1 -Pd 2 -Pds 0 -Ps 1 -Pss 4 -Pc REQUEST 
r -t 2.557826879 -Hs 20 -Hd -2 -Ni 20 -Nx 0.00 -Ny 0.00 -Nz 0.00 -Ne -1.000000 -Nl RTR -Nw --- -Ma 0 -Md ffffffff -Ms 1 -Mt 800 -Is 1.255 -Id -1.255 -It AODV -Il 48 -If 0 -Ii 0 -Iv 30 -P aodv -Pt 0x2 -Ph 1 -Pb 1 -Pd 2 -Pds 0 -Ps 1 -Pss 4 -Pc REQUEST 
r -t 2.557826879 -Hs 21 -Hd -2 -Ni 21 -Nx 0.00 -Ny 0.00 -Nz 0.00 -Ne -1.000000 -Nl RTR -Nw --- -Ma 0 -Md ffffffff -Ms 1 -Mt 800 -Is 1.255 -Id -1.255 -It AODV -Il 48 -If 0 -Ii 0 -Iv 30 -P aodv -Pt 0x2 -Ph 1 -Pb 1 -Pd 2 -Pds 0 -Ps 1 -Pss 4 -Pc REQUEST 
r -t 2.557826879 -Hs 22 -Hd -2 -Ni 22 -Nx 0.00 -Ny 0.00 -Nz 0.00 -Ne -1.000000 -Nl RTR -Nw --- -Ma 0 -Md ffffffff -Ms 1 -Mt 800 -Is 1.255 -Id -1.255 -It AODV -Il 48 -If 0 -Ii 0 -Iv 30 -P aodv -Pt 0x2 -Ph 1 -Pb 1 -Pd 2 -Pds 0 -Ps 1 -Pss 4 -Pc REQUEST 
r -t 2.557826879 -Hs 23 -Hd -2 -Ni 23 -Nx 0.00 -Ny 0.00 -Nz 0.00 -Ne -1.000000 -Nl RTR -Nw --- -Ma 0 -Md ffffffff -Ms 1 -Mt 800 -Is 1.255 -Id -1.255 -It AODV -Il 48 -If 0 -Ii 0 -Iv 30 -P aodv -Pt 0x2 -Ph 1 -Pb 1 -Pd 2 -Pds 0 -Ps 1 -Pss 4 -Pc REQUEST 
r -t 2.557826879 -Hs 24 -Hd -2 -Ni 24 -Nx 0.00 -Ny 0.00 -Nz 0.00 -Ne -1.000000 -Nl RTR -Nw --- -Ma 0 -Md ffffffff -Ms 1 -Mt 800 -Is 1.255 -Id -1.255 -It AODV -Il 48 -If 0 -Ii 0 -Iv 30 -P aodv -Pt 0x2 -Ph 1 -Pb 1 -Pd 2 -Pds 0 -Ps 1 -Pss 4 -Pc REQUEST 
r -t 2.557826879 -Hs 25 -Hd -2 -Ni 25 -Nx 0.00 -Ny 0.00 -Nz 0.00 -Ne -1.000000 -Nl RTR -Nw --- -Ma 0 -Md ffffffff -Ms 1 -Mt 800 -Is 1.255 -Id -1.255 -It AODV -Il 48 -If 0 -Ii 0 -Iv 30 -P aodv -Pt 0x2 -Ph 1 -Pb 1 -Pd 2 -Pds 0 -Ps 1 -Pss 4 -Pc REQUEST 
r -t 2.557826879 -Hs 26 -Hd -2 -Ni 26 -Nx 0.00 -Ny 0.00 -Nz 0.00 -Ne -1.000000 -Nl RTR -Nw --- -Ma 0 -Md ffffffff -Ms 1 -Mt 800 -Is 1.255 -Id -1.255 -It AODV -Il 48 -If 0 -Ii 0 -Iv 30 -P aodv -Pt 0x2 -Ph 1 -Pb 1 -Pd 2 -Pds 0 -Ps 1 -Pss 4 -Pc REQUEST 
r -t 2.557826879 -Hs 27 -Hd -2 -Ni 27 -Nx 0.00 -Ny 0.00 -Nz 0.00 -Ne -1.000000 -Nl RTR -Nw --- -Ma 0 -Md ffffffff -Ms 1 -Mt 800 -Is 1.255 -Id -1.255 -It AODV -Il 48 -If 0 -Ii 0 -Iv 30 -P aodv -Pt 0x2 -Ph 1 -Pb 1 -Pd 2 -Pds 0 -Ps 1 -Pss 4 -Pc REQUEST 
r -t 2.557826879 -Hs 28 -Hd -2 -Ni 28 -Nx 0.00 -Ny 0.00 -Nz 0.00 -Ne -1.000000 -Nl RTR -Nw --- -Ma 0 -Md ffffffff -Ms 1 -Mt 800 -Is 1.255 -Id -1.255 -It AODV -Il 48 -If 0 -Ii 0 -Iv 30 -P aodv -Pt 0x2 -Ph 1 -Pb 1 -Pd 2 -Pds 0 -Ps 1 -Pss 4 -Pc REQUEST 
r -t 2.557826879 -Hs 29 -Hd -2 -Ni 29 -Nx 0.00 -Ny 0.00 -Nz 0.00 -Ne -1.000000 -Nl RTR -Nw --- -Ma 0 -Md ffffffff -Ms 1 -Mt 800 -Is 1.255 -Id -1.255 -It AODV -Il 48 -If 0 -Ii 0 -Iv 30 -P aodv -Pt 0x2 -Ph 1 -Pb 1 -Pd 2 -Pds 0 -Ps 1 -Pss 4 -Pc REQUEST 
r -t 2.557826879 -Hs 30 -Hd -2 -Ni 30 -Nx 0.00 -Ny 0.00 -Nz 0.00 -Ne -1.000000 -Nl RTR -Nw --- -Ma 0 -Md ffffffff -Ms 1 -Mt 800 -Is 1.255 -Id -1.255 -It AODV -Il 48 -If 0 -Ii 0 -Iv 30 -P aodv -Pt 0x2 -Ph 1 -Pb 1 -Pd 2 -Pds 0 -Ps 1 -Pss 4 -Pc REQUEST 
r -t 2.557826879 -Hs 31 -Hd -2 -Ni 31 -Nx 0.00 -Ny 0.00 -Nz 0.00 -Ne -1.000000 -Nl RTR -Nw --- -Ma 0 -Md ffffffff -Ms 1 -Mt 800 -Is 1.255 -Id -1.255 -It AODV -Il 48 -If 0 -Ii 0 -Iv 30 -P aodv -Pt 0x2 -Ph 1 -Pb 1 -Pd 2 -Pds 0 -Ps 1 -Pss 4 -Pc REQUEST 
r -t 2.557826879 -Hs 32 -Hd -2 -Ni 32 -Nx 0.00 -Ny 0.00 -Nz 0.00 -Ne -1.000000 -Nl RTR -Nw --- -Ma 0 -Md ffffffff -Ms 1 -Mt 800 -Is 1.255 -Id -1.255 -It AODV -Il 48 -If 0 -Ii 0 -Iv 30 -P aodv -Pt 0x2 -Ph 1 -Pb 1 -Pd 2 -Pds 0 -Ps 1 -Pss 4 -Pc REQUEST 
r -t 2.557826879 -Hs 33 -Hd -2 -Ni 33 -Nx 0.00 -Ny 0.00 -Nz 0.00 -Ne -1.000000 -Nl RTR -Nw --- -Ma 0 -Md ffffffff -Ms 1 -Mt 800 -Is 1.255 -Id -1.255 -It AODV -Il 48 -If 0 -Ii 0 -Iv 30 -P aodv -Pt 0x2 -Ph 1 -Pb 1 -Pd 2 -Pds 0 -Ps 1 -Pss 4 -Pc REQUEST 
r -t 2.557826879 -Hs 34 -Hd -2 -Ni 34 -Nx 0.00 -Ny 0.00 -Nz 0.00 -Ne -1.000000 -Nl RTR -Nw --- -Ma 0 -Md ffffffff -Ms 1 -Mt 800 -Is 1.255 -Id -1.255 -It AODV -Il 48 -If 0 -Ii 0 -Iv 30 -P aodv -Pt 0x2 -Ph 1 -Pb 1 -Pd 2 -Pds 0 -Ps 1 -Pss 4 -Pc REQUEST 
r -t 2.557826879 -Hs 35 -Hd -2 -Ni 35 -Nx 0.00 -Ny 0.00 -Nz 0.00 -Ne -1.000000 -Nl RTR -Nw --- -Ma 0 -Md ffffffff -Ms 1 -Mt 800 -Is 1.255 -Id -1.255 -It AODV -Il 48 -If 0 -Ii 0 -Iv 30 -P aodv -Pt 0x2 -Ph 1 -Pb 1 -Pd 2 -Pds 0 -Ps 1 -Pss 4 -Pc REQUEST 
r -t 2.557826879 -Hs 36 -Hd -2 -Ni 36 -Nx 0.00 -Ny 0.00 -Nz 0.00 -Ne -1.000000 -Nl RTR -Nw --- -Ma 0 -Md ffffffff -Ms 1 -Mt 800 -Is 1.255 -Id -1.255 -It AODV -Il 48 -If 0 -Ii 0 -Iv 30 -P aodv -Pt 0x2 -Ph 1 -Pb 1 -Pd 2 -Pds 0 -Ps 1 -Pss 4 -Pc REQUEST 
r -t 2.557826879 -Hs 37 -Hd -2 -Ni 37 -Nx 0.00 -Ny 0.00 -Nz 0.00 -Ne -1.000000 -Nl RTR -Nw --- -Ma 0 -Md ffffffff -Ms 1 -Mt 800 -Is 1.255 -Id -1.255 -It AODV -Il 48 -If 0 -Ii 0 -Iv 30 -P aodv -Pt 0x2 -Ph 1 -Pb 1 -Pd 2 -Pds 0 -Ps 1 -Pss 4 -Pc REQUEST 
r -t 2.557826879 -Hs 38 -Hd -2 -Ni 38 -Nx 0.00 -Ny 0.00 -Nz 0.00 -Ne -1.000000 -Nl RTR -Nw --- -Ma 0 -Md ffffffff -Ms 1 -Mt 800 -Is 1.255 -Id -1.255 -It AODV -Il 48 -If 0 -Ii 0 -Iv 30 -P aodv -Pt 0x2 -Ph 1 -Pb 1 -Pd 2 -Pds 0 -Ps 1 -Pss 4 -Pc REQUEST 
r -t 2.557826879 -Hs 39 -Hd -2 -Ni 39 -Nx 0.00 -Ny 0.00 -Nz 0.00 -Ne -1.000000 -Nl RTR -Nw --- -Ma 0 -Md ffffffff -Ms 1 -Mt 800 -Is 1.255 -Id -1.255 -It AODV -Il 48 -If 0 -Ii 0 -Iv 30 -P aodv -Pt 0x2 -Ph 1 -Pb 1 -Pd 2 -Pds 0 -Ps 1 -Pss 4 -Pc REQUEST 
r -t 2.557826879 -Hs 40 -Hd -2 -Ni 40 -Nx 0.00 -Ny 0.00 -Nz 0.00 -Ne -1.000000 -Nl RTR -Nw --- -Ma 0 -Md ffffffff -Ms 1 -Mt 800 -Is 1.255 -Id -1.255 -It AODV -Il 48 -If 0 -Ii 0 -Iv 30 -P aodv -Pt 0x2 -Ph 1 -Pb 1 -Pd 2 -Pds 0 -Ps 1 -Pss 4 -Pc REQUEST 
r -t 2.557826879 -Hs 41 -Hd -2 -Ni 41 -Nx 0.00 -Ny 0.00 -Nz 0.00 -Ne -1.000000 -Nl RTR -Nw --- -Ma 0 -Md ffffffff -Ms 1 -Mt 800 -Is 1.255 -Id -1.255 -It AODV -Il 48 -If 0 -Ii 0 -Iv 30 -P aodv -Pt 0x2 -Ph 1 -Pb 1 -Pd 2 -Pds 0 -Ps 1 -Pss 4 -Pc REQUEST 
r -t 2.557826879 -Hs 42 -Hd -2 -Ni 42 -Nx 0.00 -Ny 0.00 -Nz 0.00 -Ne -1.000000 -Nl RTR -Nw --- -Ma 0 -Md ffffffff -Ms 1 -Mt 800 -Is 1.255 -Id -1.255 -It AODV -Il 48 -If 0 -Ii 0 -Iv 30 -P aodv -Pt 0x2 -Ph 1 -Pb 1 -Pd 2 -Pds 0 -Ps 1 -Pss 4 -Pc REQUEST 
r -t 2.557826879 -Hs 43 -Hd -2 -Ni 43 -Nx 0.00 -Ny 0.00 -Nz 0.00 -Ne -1.000000 -Nl RTR -Nw --- -Ma 0 -Md ffffffff -Ms 1 -Mt 800 -Is 1.255 -Id -1.255 -It AODV -Il 48 -If 0 -Ii 0 -Iv 30 -P aodv -Pt 0x2 -Ph 1 -Pb 1 -Pd 2 -Pds 0 -Ps 1 -Pss 4 -Pc REQUEST 
r -t 2.557826879 -Hs 44 -Hd -2 -Ni 44 -Nx 0.00 -Ny 0.00 -Nz 0.00 -Ne -1.000000 -Nl RTR -Nw --- -Ma 0 -Md ffffffff -Ms 1 -Mt 800 -Is 1.255 -Id -1.255 -It AODV -Il 48 -If 0 -Ii 0 -Iv 30 -P aodv -Pt 0x2 -Ph 1 -Pb 1 -Pd 2 -Pds 0 -Ps 1 -Pss 4 -Pc REQUEST 
r -t 2.557826879 -Hs 45 -Hd -2 -Ni 45 -Nx 0.00 -Ny 0.00 -Nz 0.00 -Ne -1.000000 -Nl RTR -Nw --- -Ma 0 -Md ffffffff -Ms 1 -Mt 800 -Is 1.255 -Id -1.255 -It AODV -Il 48 -If 0 -Ii 0 -Iv 30 -P aodv -Pt 0x2 -Ph 1 -Pb 1 -Pd 2 -Pds 0 -Ps 1 -Pss 4 -Pc REQUEST 
r -t 2.557826879 -Hs 46 -Hd -2 -Ni 46 -Nx 0.00 -Ny 0.00 -Nz 0.00 -Ne -1.000000 -Nl RTR -Nw --- -Ma 0 -Md ffffffff -Ms 1 -Mt 800 -Is 1.255 -Id -1.255 -It AODV -Il 48 -If 0 -Ii 0 -Iv 30 -P aodv -Pt 0x2 -Ph 1 -Pb 1 -Pd 2 -Pds 0 -Ps 1 -Pss 4 -Pc REQUEST 
r -t 2.557826879 -Hs 47 -Hd -2 -Ni 47 -Nx 0.00 -Ny 0.00 -Nz 0.00 -Ne -1.000000 -Nl RTR -Nw --- -Ma 0 -Md ffffffff -Ms 1 -Mt 800 -Is 1.255 -Id -1.255 -It AODV -Il 48 -If 0 -Ii 0 -Iv 30 -P aodv -Pt 0x2 -Ph 1 -Pb 1 -Pd 2 -Pds 0 -Ps 1 -Pss 4 -Pc REQUEST 
r -t 2.557826879 -Hs 48 -Hd -2 -Ni 48 -Nx 0.00 -Ny 0.00 -Nz 0.00 -Ne -1.000000 -Nl RTR -Nw --- -Ma 0 -Md ffffffff -Ms 1 -Mt 800 -Is 1.255 -Id -1.255 -It AODV -Il 48 -If 0 -Ii 0 -Iv 30 -P aodv -Pt 0x2 -Ph 1 -Pb 1 -Pd 2 -Pds 0 -Ps 1 -Pss 4 -Pc REQUEST 
r -t 2.557826879 -Hs 49 -Hd -2 -Ni 49 -Nx 0.00 -Ny 0.00 -Nz 0.00 -Ne -1.000000 -Nl RTR -Nw --- -Ma 0 -Md ffffffff -Ms 1 -Mt 800 -Is 1.255 -Id -1.255 -It AODV -Il 48 -If 0 -Ii 0 -Iv 30 -P aodv -Pt 0x2 -Ph 1 -Pb 1 -Pd 2 -Pds 0 -Ps 1 -Pss 4 -Pc REQUEST 
s -t 2.557826879 -Hs 2 -Hd 1 -Ni 2 -Nx 0.00 -Ny 0.00 -Nz 0.00 -Ne -1.000000 -Nl RTR -Nw --- -Ma 0 -Md 0 -Ms 0 -Mt 0 -Is 2.255 -Id 1.255 -It AODV -Il 44 -If 0 -Ii 0 -Iv 30 -P aodv -Pt 0x4 -Ph 1 -Pd 2 -Pds 4 -Pl 10.000000 -Pc REPLY 
s -t 2.557934962 -Hs 43 -Hd -2 -Ni 43 -Nx 0.00 -Ny 0.00 -Nz 0.00 -Ne -1.000000 -Nl RTR -Nw --- -Ma 0 -Md ffffffff -Ms 1 -Mt 800 -Is 43.255 -Id -1.255 -It AODV -Il 48 -If 0 -Ii 0 -Iv 29 -P aodv -Pt 0x2 -Ph 2 -Pb 1 -Pd 2 -Pds 0 -Ps 1 -Pss 4 -Pc REQUEST 
s -t 2.558254824 -Hs 12 -Hd -2 -Ni 12 -Nx 0.00 -Ny 0.00 -Nz 0.00 -Ne -1.000000 -Nl RTR -Nw --- -Ma 0 -Md ffffffff -Ms 1 -Mt 800 -Is 12.255 -Id -1.255 -It AODV -Il 48 -If 0 -Ii 0 -Iv 29 -P aodv -Pt 0x2 -Ph 2 -Pb 1 -Pd 2 -Pds 0 -Ps 1 -Pss 4 -Pc REQUEST 
s -t 2.558410905 -Hs 42 -Hd -2 -Ni 42 -Nx 0.00 -Ny 0.00 -Nz 0.00 -Ne -1.000000 -Nl RTR -Nw --- -Ma 0 -Md ffffffff -Ms 1 -Mt 800 -Is 42.255 -Id -1.255 -It AODV -Il 48 -If 0 -Ii 0 -Iv 29 -P aodv -Pt 0x2 -Ph 2 -Pb 1 -Pd 2 -Pds 0 -Ps 1 -Pss 4 -Pc REQUEST 
s -t 2.558708105 -Hs 0 -Hd -2 -Ni 0 -Nx 0.00 -Ny 0.00 -Nz 0.00 -Ne -1.000000 -Nl RTR -Nw --- -Ma 0 -Md ffffffff -Ms 1 -Mt 800 -Is 0.255 -Id -1.255 -It AODV -Il 48 -If 0 -Ii 0 -Iv 29 -P aodv -Pt 0x2 -Ph 2 -Pb 1 -Pd 2 -Pds 0 -Ps 1 -Pss 4 -Pc REQUEST 
s -t 2.558768267 -Hs 18 -Hd -2 -Ni 18 -Nx 0.00 -Ny 0.00 -Nz 0.00 -Ne -1.000000 -Nl RTR -Nw --- -Ma 0 -Md ffffffff -Ms 1 -Mt 800 -Is 18.255 -Id -1.255 -It AODV -Il 48 -If 0 -Ii 0 -Iv 29 -P aodv -Pt 0x2 -Ph 2 -Pb 1 -Pd 2 -Pds 0 -Ps 1 -Pss 4 -Pc REQUEST 
s -t 2.558918863 -Hs 35 -Hd -2 -Ni 35 -Nx 0.00 -Ny 0.00 -Nz 0.00 -Ne -1.000000 -Nl RTR -Nw --- -Ma 0 -Md ffffffff -Ms 1 -Mt 800 -Is 35.255 -Id -1.255 -It AODV -Il 48 -If 0 -Ii 0 -Iv 29 -P aodv -Pt 0x2 -Ph 2 -Pb 1 -Pd 2 -Pds 0 -Ps 1 -Pss 4 -Pc REQUEST 
s -t 2.558947192 -Hs 41 -Hd -2 -Ni 41 -Nx 0.00 -Ny 0.00 -Nz 0.00 -Ne -1.000000 -Nl RTR -Nw --- -Ma 0 -Md ffffffff -Ms 1 -Mt 800 -Is 41.255 -Id -1.255 -It AODV -Il 48 -If 0 -Ii 0 -Iv 29 -P aodv -Pt 0x2 -Ph 2 -Pb 1 -Pd 2 -Pds 0 -Ps 1 -Pss 4 -Pc REQUEST 
s -t 2.558964961 -Hs 14 -Hd -2 -Ni 14 -Nx 0.00 -Ny 0.00 -Nz 0.00 -Ne -1.000000 -Nl RTR -Nw --- -Ma 0 -Md ffffffff -Ms 1 -Mt 800 -Is 14.255 -Id -1.255 -It AODV -Il 48 -If 0 -Ii 0 -Iv 29 -P aodv -Pt 0x2 -Ph 2 -Pb 1 -Pd 2 -Pds 0 -Ps 1 -Pss 4 -Pc REQUEST 
s -t 2.559057914 -Hs 46 -Hd -2 -Ni 46 -Nx 0.00 -Ny 0.00 -Nz 0.00 -Ne -1.000000 -Nl RTR -Nw --- -Ma 0 -Md ffffffff -Ms 1 -Mt 800 -Is 46.255 -Id -1.255 -It AODV -Il 48 -If 0 -Ii 0 -Iv 29 -P aodv -Pt 0x2 -Ph 2 -Pb 1 -Pd 2 -Pds 0 -Ps 1 -Pss 4 -Pc REQUEST 
s -t 2.559468333 -Hs 11 -Hd -2 -Ni 11 -Nx 0.00 -Ny 0.00 -Nz 0.00 -Ne -1.000000 -Nl RTR -Nw --- -Ma 0 -Md ffffffff -Ms 1 -Mt 800 -Is 11.255 -Id -1.255 -It AODV -Il 48 -If 0 -Ii 0 -Iv 29 -P aodv -Pt 0x2 -Ph 2 -Pb 1 -Pd 2 -Pds 0 -Ps 1 -Pss 4 -Pc REQUEST 
s -t 2.559574931 -Hs 17 -Hd -2 -Ni 17 -Nx 0.00 -Ny 0.00 -Nz 0.00 -Ne -1.000000 -Nl RTR -Nw --- -Ma 0 -Md ffffffff -Ms 1 -Mt 800 -Is 17.255 -Id -1.255 -It AODV -Il 48 -If 0 -Ii 0 -Iv 29 -P aodv -Pt 0x2 -Ph 2 -Pb 1 -Pd 2 -Pds 0 -Ps 1 -Pss 4 -Pc REQUEST 
r -t 2.559652879 -Hs 41 -Hd -2 -Ni 41 -Nx 0.00 -Ny 0.00 -Nz 0.00 -Ne -1.000000 -Nl RTR -Nw --- -Ma 0 -Md ffffffff -Ms 2a -Mt 800 -Is 42.255 -Id -1.255 -It AODV -Il 48 -If 0 -Ii 0 -Iv 29 -P aodv -Pt 0x2 -Ph 2 -Pb 1 -Pd 2 -Pds 0 -Ps 1 -Pss 4 -Pc REQUEST 
r -t 2.559652879 -Hs 40 -Hd -2 -Ni 40 -Nx 0.00 -Ny 0.00 -Nz 0.00 -Ne -1.000000 -Nl RTR -Nw --- -Ma 0 -Md ffffffff -Ms 2a -Mt 800 -Is 42.255 -Id -1.255 -It AODV -Il 48 -If 0 -Ii 0 -Iv 29 -P aodv -Pt 0x2 -Ph 2 -Pb 1 -Pd 2 -Pds 0 -Ps 1 -Pss 4 -Pc REQUEST 
r -t 2.559652879 -Hs 39 -Hd -2 -Ni 39 -Nx 0.00 -Ny 0.00 -Nz 0.00 -Ne -1.000000 -Nl RTR -Nw --- -Ma 0 -Md ffffffff -Ms 2a -Mt 800 -Is 42.255 -Id -1.255 -It AODV -Il 48 -If 0 -Ii 0 -Iv 29 -P aodv -Pt 0x2 -Ph 2 -Pb 1 -Pd 2 -Pds 0 -Ps 1 -Pss 4 -Pc REQUEST 
r -t 2.559652879 -Hs 38 -Hd -2 -Ni 38 -Nx 0.00 -Ny 0.00 -Nz 0.00 -Ne -1.000000 -Nl RTR -Nw --- -Ma 0 -Md ffffffff -Ms 2a -Mt 800 -Is 42.255 -Id -1.255 -It AODV -Il 48 -If 0 -Ii 0 -Iv 29 -P aodv -Pt 0x2 -Ph 2 -Pb 1 -Pd 2 -Pds 0 -Ps 1 -Pss 4 -Pc REQUEST 
r -t 2.559652879 -Hs 37 -Hd -2 -Ni 37 -Nx 0.00 -Ny 0.00 -Nz 0.00 -Ne -1.000000 -Nl RTR -Nw --- -Ma 0 -Md ffffffff -Ms 2a -Mt 800 -Is 42.255 -Id -1.255 -It AODV -Il 48 -If 0 -Ii 0 -Iv 29 -P aodv -Pt 0x2 -Ph 2 -Pb 1 -Pd 2 -Pds 0 -Ps 1 -Pss 4 -Pc REQUEST 
r -t 2.559652879 -Hs 36 -Hd -2 -Ni 36 -Nx 0.00 -Ny 0.00 -Nz 0.00 -Ne -1.000000 -Nl RTR -Nw --- -Ma 0 -Md ffffffff -Ms 2a -Mt 800 -Is 42.255 -Id -1.255 -It AODV -Il 48 -If 0 -Ii 0 -Iv 29 -P aodv -Pt 0x2 -Ph 2 -Pb 1 -Pd 2 -Pds 0 -Ps 1 -Pss 4 -Pc REQUEST 
r -t 2.559652879 -Hs 35 -Hd -2 -Ni 35 -Nx 0.00 -Ny 0.00 -Nz 0.00 -Ne -1.000000 -Nl RTR -Nw --- -Ma 0 -Md ffffffff -Ms 2a -Mt 800 -Is 42.255 -Id -1.255 -It AODV -Il 48 -If 0 -Ii 0 -Iv 29 -P aodv -Pt 0x2 -Ph 2 -Pb 1 -Pd 2 -Pds 0 -Ps 1 -Pss 4 -Pc REQUEST 
r -t 2.559652879 -Hs 34 -Hd -2 -Ni 34 -Nx 0.00 -Ny 0.00 -Nz 0.00 -Ne -1.000000 -Nl RTR -Nw --- -Ma 0 -Md ffffffff -Ms 2a -Mt 800 -Is 42.255 -Id -1.255 -It AODV -Il 48 -If 0 -Ii 0 -Iv 29 -P aodv -Pt 0x2 -Ph 2 -Pb 1 -Pd 2 -Pds 0 -Ps 1 -Pss 4 -Pc REQUEST 
r -t 2.559652879 -Hs 33 -Hd -2 -Ni 33 -Nx 0.00 -Ny 0.00 -Nz 0.00 -Ne -1.000000 -Nl RTR -Nw --- -Ma 0 -Md ffffffff -Ms 2a -Mt 800 -Is 42.255 -Id -1.255 -It AODV -Il 48 -If 0 -Ii 0 -Iv 29 -P aodv -Pt 0x2 -Ph 2 -Pb 1 -Pd 2 -Pds 0 -Ps 1 -Pss 4 -Pc REQUEST 
r -t 2.559652879 -Hs 32 -Hd -2 -Ni 32 -Nx 0.00 -Ny 0.00 -Nz 0.00 -Ne -1.000000 -Nl RTR -Nw --- -Ma 0 -Md ffffffff -Ms 2a -Mt 800 -Is 42.255 -Id -1.255 -It AODV -Il 48 -If 0 -Ii 0 -Iv 29 -P aodv -Pt 0x2 -Ph 2 -Pb 1 -Pd 2 -Pds 0 -Ps 1 -Pss 4 -Pc REQUEST 
r -t 2.559652879 -Hs 31 -Hd -2 -Ni 31 -Nx 0.00 -Ny 0.00 -Nz 0.00 -Ne -1.000000 -Nl RTR -Nw --- -Ma 0 -Md ffffffff -Ms 2a -Mt 800 -Is 42.255 -Id -1.255 -It AODV -Il 48 -If 0 -Ii 0 -Iv 29 -P aodv -Pt 0x2 -Ph 2 -Pb 1 -Pd 2 -Pds 0 -Ps 1 -Pss 4 -Pc REQUEST 
r -t 2.559652879 -Hs 30 -Hd -2 -Ni 30 -Nx 0.00 -Ny 0.00 -Nz 0.00 -Ne -1.000000 -Nl RTR -Nw --- -Ma 0 -Md ffffffff -Ms 2a -Mt 800 -Is 42.255 -Id -1.255 -It AODV -Il 48 -If 0 -Ii 0 -Iv 29 -P aodv -Pt 0x2 -Ph 2 -Pb 1 -Pd 2 -Pds 0 -Ps 1 -Pss 4 -Pc REQUEST 
r -t 2.559652879 -Hs 29 -Hd -2 -Ni 29 -Nx 0.00 -Ny 0.00 -Nz 0.00 -Ne -1.000000 -Nl RTR -Nw --- -Ma 0 -Md ffffffff -Ms 2a -Mt 800 -Is 42.255 -Id -1.255 -It AODV -Il 48 -If 0 -Ii 0 -Iv 29 -P aodv -Pt 0x2 -Ph 2 -Pb 1 -Pd 2 -Pds 0 -Ps 1 -Pss 4 -Pc REQUEST 
r -t 2.559652879 -Hs 28 -Hd -2 -Ni 28 -Nx 0.00 -Ny 0.00 -Nz 0.00 -Ne -1.000000 -Nl RTR -Nw --- -Ma 0 -Md ffffffff -Ms 2a -Mt 800 -Is 42.255 -Id -1.255 -It AODV -Il 48 -If 0 -Ii 0 -Iv 29 -P aodv -Pt 0x2 -Ph 2 -Pb 1 -Pd 2 -Pds 0 -Ps 1 -Pss 4 -Pc REQUEST 
r -t 2.559652879 -Hs 27 -Hd -2 -Ni 27 -Nx 0.00 -Ny 0.00 -Nz 0.00 -Ne -1.000000 -Nl RTR -Nw --- -Ma 0 -Md ffffffff -Ms 2a -Mt 800 -Is 42.255 -Id -1.255 -It AODV -Il 48 -If 0 -Ii 0 -Iv 29 -P aodv -Pt 0x2 -Ph 2 -Pb 1 -Pd 2 -Pds 0 -Ps 1 -Pss 4 -Pc REQUEST 
r -t 2.559652879 -Hs 26 -Hd -2 -Ni 26 -Nx 0.00 -Ny 0.00 -Nz 0.00 -Ne -1.000000 -Nl RTR -Nw --- -Ma 0 -Md ffffffff -Ms 2a -Mt 800 -Is 42.255 -Id -1.255 -It AODV -Il 48 -If 0 -Ii 0 -Iv 29 -P aodv -Pt 0x2 -Ph 2 -Pb 1 -Pd 2 -Pds 0 -Ps 1 -Pss 4 -Pc REQUEST 
r -t 2.559652879 -Hs 25 -Hd -2 -Ni 25 -Nx 0.00 -Ny 0.00 -Nz 0.00 -Ne -1.000000 -Nl RTR -Nw --- -Ma 0 -Md ffffffff -Ms 2a -Mt 800 -Is 42.255 -Id -1.255 -It AODV -Il 48 -If 0 -Ii 0 -Iv 29 -P aodv -Pt 0x2 -Ph 2 -Pb 1 -Pd 2 -Pds 0 -Ps 1 -Pss 4 -Pc REQUEST 
r -t 2.559652879 -Hs 24 -Hd -2 -Ni 24 -Nx 0.00 -Ny 0.00 -Nz 0.00 -Ne -1.000000 -Nl RTR -Nw --- -Ma 0 -Md ffffffff -Ms 2a -Mt 800 -Is 42.255 -Id -1.255 -It AODV -Il 48 -If 0 -Ii 0 -Iv 29 -P aodv -Pt 0x2 -Ph 2 -Pb 1 -Pd 2 -Pds 0 -Ps 1 -Pss 4 -Pc REQUEST 
r -t 2.559652879 -Hs 23 -Hd -2 -Ni 23 -Nx 0.00 -Ny 0.00 -Nz 0.00 -Ne -1.000000 -Nl RTR -Nw --- -Ma 0 -Md ffffffff -Ms 2a -Mt 800 -Is 42.255 -Id -1.255 -It AODV -Il 48 -If 0 -Ii 0 -Iv 29 -P aodv -Pt 0x2 -Ph 2 -Pb 1 -Pd 2 -Pds 0 -Ps 1 -Pss 4 -Pc REQUEST 
r -t 2.559652879 -Hs 22 -Hd -2 -Ni 22 -Nx 0.00 -Ny 0.00 -Nz 0.00 -Ne -1.000000 -Nl RTR -Nw --- -Ma 0 -Md ffffffff -Ms 2a -Mt 800 -Is 42.255 -Id -1.255 -It AODV -Il 48 -If 0 -Ii 0 -Iv 29 -P aodv -Pt 0x2 -Ph 2 -Pb 1 -Pd 2 -Pds 0 -Ps 1 -Pss 4 -Pc REQUEST 
r -t 2.559652879 -Hs 21 -Hd -2 -Ni 21 -Nx 0.00 -Ny 0.00 -Nz 0.00 -Ne -1.000000 -Nl RTR -Nw --- -Ma 0 -Md ffffffff -Ms 2a -Mt 800 -Is 42.255 -Id -1.255 -It AODV -Il 48 -If 0 -Ii 0 -Iv 29 -P aodv -Pt 0x2 -Ph 2 -Pb 1 -Pd 2 -Pds 0 -Ps 1 -Pss 4 -Pc REQUEST 
r -t 2.559652879 -Hs 20 -Hd -2 -Ni 20 -Nx 0.00 -Ny 0.00 -Nz 0.00 -Ne -1.000000 -Nl RTR -Nw --- -Ma 0 -Md ffffffff -Ms 2a -Mt 800 -Is 42.255 -Id -1.255 -It AODV -Il 48 -If 0 -Ii 0 -Iv 29 -P aodv -Pt 0x2 -Ph 2 -Pb 1 -Pd 2 -Pds 0 -Ps 1 -Pss 4 -Pc REQUEST 
r -t 2.559652879 -Hs 19 -Hd -2 -Ni 19 -Nx 0.00 -Ny 0.00 -Nz 0.00 -Ne -1.000000 -Nl RTR -Nw --- -Ma 0 -Md ffffffff -Ms 2a -Mt 800 -Is 42.255 -Id -1.255 -It AODV -Il 48 -If 0 -Ii 0 -Iv 29 -P aodv -Pt 0x2 -Ph 2 -Pb 1 -Pd 2 -Pds 0 -Ps 1 -Pss 4 -Pc REQUEST 
r -t 2.559652879 -Hs 18 -Hd -2 -Ni 18 -Nx 0.00 -Ny 0.00 -Nz 0.00 -Ne -1.000000 -Nl RTR -Nw --- -Ma 0 -Md ffffffff -Ms 2a -Mt 800 -Is 42.255 -Id -1.255 -It AODV -Il 48 -If 0 -Ii 0 -Iv 29 -P aodv -Pt 0x2 -Ph 2 -Pb 1 -Pd 2 -Pds 0 -Ps 1 -Pss 4 -Pc REQUEST 
r -t 2.559652879 -Hs 17 -Hd -2 -Ni 17 -Nx 0.00 -Ny 0.00 -Nz 0.00 -Ne -1.000000 -Nl RTR -Nw --- -Ma 0 -Md ffffffff -Ms 2a -Mt 800 -Is 42.255 -Id -1.255 -It AODV -Il 48 -If 0 -Ii 0 -Iv 29 -P aodv -Pt 0x2 -Ph 2 -Pb 1 -Pd 2 -Pds 0 -Ps 1 -Pss 4 -Pc REQUEST 
r -t 2.559652879 -Hs 16 -Hd -2 -Ni 16 -Nx 0.00 -Ny 0.00 -Nz 0.00 -Ne -1.000000 -Nl RTR -Nw --- -Ma 0 -Md ffffffff -Ms 2a -Mt 800 -Is 42.255 -Id -1.255 -It AODV -Il 48 -If 0 -Ii 0 -Iv 29 -P aodv -Pt 0x2 -Ph 2 -Pb 1 -Pd 2 -Pds 0 -Ps 1 -Pss 4 -Pc REQUEST 
r -t 2.559652879 -Hs 15 -Hd -2 -Ni 15 -Nx 0.00 -Ny 0.00 -Nz 0.00 -Ne -1.000000 -Nl RTR -Nw --- -Ma 0 -Md ffffffff -Ms 2a -Mt 800 -Is 42.255 -Id -1.255 -It AODV -Il 48 -If 0 -Ii 0 -Iv 29 -P aodv -Pt 0x2 -Ph 2 -Pb 1 -Pd 2 -Pds 0 -Ps 1 -Pss 4 -Pc REQUEST 
r -t 2.559652879 -Hs 14 -Hd -2 -Ni 14 -Nx 0.00 -Ny 0.00 -Nz 0.00 -Ne -1.000000 -Nl RTR -Nw --- -Ma 0 -Md ffffffff -Ms 2a -Mt 800 -Is 42.255 -Id -1.255 -It AODV -Il 48 -If 0 -Ii 0 -Iv 29 -P aodv -Pt 0x2 -Ph 2 -Pb 1 -Pd 2 -Pds 0 -Ps 1 -Pss 4 -Pc REQUEST 
r -t 2.559652879 -Hs 13 -Hd -2 -Ni 13 -Nx 0.00 -Ny 0.00 -Nz 0.00 -Ne -1.000000 -Nl RTR -Nw --- -Ma 0 -Md ffffffff -Ms 2a -Mt 800 -Is 42.255 -Id -1.255 -It AODV -Il 48 -If 0 -Ii 0 -Iv 29 -P aodv -Pt 0x2 -Ph 2 -Pb 1 -Pd 2 -Pds 0 -Ps 1 -Pss 4 -Pc REQUEST 
r -t 2.559652879 -Hs 12 -Hd -2 -Ni 12 -Nx 0.00 -Ny 0.00 -Nz 0.00 -Ne -1.000000 -Nl RTR -Nw --- -Ma 0 -Md ffffffff -Ms 2a -Mt 800 -Is 42.255 -Id -1.255 -It AODV -Il 48 -If 0 -Ii 0 -Iv 29 -P aodv -Pt 0x2 -Ph 2 -Pb 1 -Pd 2 -Pds 0 -Ps 1 -Pss 4 -Pc REQUEST 
r -t 2.559652879 -Hs 11 -Hd -2 -Ni 11 -Nx 0.00 -Ny 0.00 -Nz 0.00 -Ne -1.000000 -Nl RTR -Nw --- -Ma 0 -Md ffffffff -Ms 2a -Mt 800 -Is 42.255 -Id -1.255 -It AODV -Il 48 -If 0 -Ii 0 -Iv 29 -P aodv -Pt 0x2 -Ph 2 -Pb 1 -Pd 2 -Pds 0 -Ps 1 -Pss 4 -Pc REQUEST 
r -t 2.559652879 -Hs 10 -Hd -2 -Ni 10 -Nx 0.00 -Ny 0.00 -Nz 0.00 -Ne -1.000000 -Nl RTR -Nw --- -Ma 0 -Md ffffffff -Ms 2a -Mt 800 -Is 42.255 -Id -1.255 -It AODV -Il 48 -If 0 -Ii 0 -Iv 29 -P aodv -Pt 0x2 -Ph 2 -Pb 1 -Pd 2 -Pds 0 -Ps 1 -Pss 4 -Pc REQUEST 
r -t 2.559652879 -Hs 9 -Hd -2 -Ni 9 -Nx 0.00 -Ny 0.00 -Nz 0.00 -Ne -1.000000 -Nl RTR -Nw --- -Ma 0 -Md ffffffff -Ms 2a -Mt 800 -Is 42.255 -Id -1.255 -It AODV -Il 48 -If 0 -Ii 0 -Iv 29 -P aodv -Pt 0x2 -Ph 2 -Pb 1 -Pd 2 -Pds 0 -Ps 1 -Pss 4 -Pc REQUEST 
r -t 2.559652879 -Hs 8 -Hd -2 -Ni 8 -Nx 0.00 -Ny 0.00 -Nz 0.00 -Ne -1.000000 -Nl RTR -Nw --- -Ma 0 -Md ffffffff -Ms 2a -Mt 800 -Is 42.255 -Id -1.255 -It AODV -Il 48 -If 0 -Ii 0 -Iv 29 -P aodv -Pt 0x2 -Ph 2 -Pb 1 -Pd 2 -Pds 0 -Ps 1 -Pss 4 -Pc REQUEST 
r -t 2.559652879 -Hs 7 -Hd -2 -Ni 7 -Nx 0.00 -Ny 0.00 -Nz 0.00 -Ne -1.000000 -Nl RTR -Nw --- -Ma 0 -Md ffffffff -Ms 2a -Mt 800 -Is 42.255 -Id -1.255 -It AODV -Il 48 -If 0 -Ii 0 -Iv 29 -P aodv -Pt 0x2 -Ph 2 -Pb 1 -Pd 2 -Pds 0 -Ps 1 -Pss 4 -Pc REQUEST 
r -t 2.559652879 -Hs 6 -Hd -2 -Ni 6 -Nx 0.00 -Ny 0.00 -Nz 0.00 -Ne -1.000000 -Nl RTR -Nw --- -Ma 0 -Md ffffffff -Ms 2a -Mt 800 -Is 42.255 -Id -1.255 -It AODV -Il 48 -If 0 -Ii 0 -Iv 29 -P aodv -Pt 0x2 -Ph 2 -Pb 1 -Pd 2 -Pds 0 -Ps 1 -Pss 4 -Pc REQUEST 
r -t 2.559652879 -Hs 5 -Hd -2 -Ni 5 -Nx 0.00 -Ny 0.00 -Nz 0.00 -Ne -1.000000 -Nl RTR -Nw --- -Ma 0 -Md ffffffff -Ms 2a -Mt 800 -Is 42.255 -Id -1.255 -It AODV -Il 48 -If 0 -Ii 0 -Iv 29 -P aodv -Pt 0x2 -Ph 2 -Pb 1 -Pd 2 -Pds 0 -Ps 1 -Pss 4 -Pc REQUEST 
r -t 2.559652879 -Hs 4 -Hd -2 -Ni 4 -Nx 0.00 -Ny 0.00 -Nz 0.00 -Ne -1.000000 -Nl RTR -Nw --- -Ma 0 -Md ffffffff -Ms 2a -Mt 800 -Is 42.255 -Id -1.255 -It AODV -Il 48 -If 0 -Ii 0 -Iv 29 -P aodv -Pt 0x2 -Ph 2 -Pb 1 -Pd 2 -Pds 0 -Ps 1 -Pss 4 -Pc REQUEST 
r -t 2.559652879 -Hs 3 -Hd -2 -Ni 3 -Nx 0.00 -Ny 0.00 -Nz 0.00 -Ne -1.000000 -Nl RTR -Nw --- -Ma 0 -Md ffffffff -Ms 2a -Mt 800 -Is 42.255 -Id -1.255 -It AODV -Il 48 -If 0 -Ii 0 -Iv 29 -P aodv -Pt 0x2 -Ph 2 -Pb 1 -Pd 2 -Pds 0 -Ps 1 -Pss 4 -Pc REQUEST 
r -t 2.559652879 -Hs 2 -Hd -2 -Ni 2 -Nx 0.00 -Ny 0.00 -Nz 0.00 -Ne -1.000000 -Nl RTR -Nw --- -Ma 0 -Md ffffffff -Ms 2a -Mt 800 -Is 42.255 -Id -1.255 -It AODV -Il 48 -If 0 -Ii 0 -Iv 29 -P aodv -Pt 0x2 -Ph 2 -Pb 1 -Pd 2 -Pds 0 -Ps 1 -Pss 4 -Pc REQUEST 
r -t 2.559652879 -Hs 1 -Hd -2 -Ni 1 -Nx 0.00 -Ny 0.00 -Nz 0.00 -Ne -1.000000 -Nl RTR -Nw --- -Ma 0 -Md ffffffff -Ms 2a -Mt 800 -Is 42.255 -Id -1.255 -It AODV -Il 48 -If 0 -Ii 0 -Iv 29 -P aodv -Pt 0x2 -Ph 2 -Pb 1 -Pd 2 -Pds 0 -Ps 1 -Pss 4 -Pc REQUEST 
r -t 2.559652879 -Hs 0 -Hd -2 -Ni 0 -Nx 0.00 -Ny 0.00 -Nz 0.00 -Ne -1.000000 -Nl RTR -Nw --- -Ma 0 -Md ffffffff -Ms 2a -Mt 800 -Is 42.255 -Id -1.255 -It AODV -Il 48 -If 0 -Ii 0 -Iv 29 -P aodv -Pt 0x2 -Ph 2 -Pb 1 -Pd 2 -Pds 0 -Ps 1 -Pss 4 -Pc REQUEST 
r -t 2.559652879 -Hs 43 -Hd -2 -Ni 43 -Nx 0.00 -Ny 0.00 -Nz 0.00 -Ne -1.000000 -Nl RTR -Nw --- -Ma 0 -Md ffffffff -Ms 2a -Mt 800 -Is 42.255 -Id -1.255 -It AODV -Il 48 -If 0 -Ii 0 -Iv 29 -P aodv -Pt 0x2 -Ph 2 -Pb 1 -Pd 2 -Pds 0 -Ps 1 -Pss 4 -Pc REQUEST 
r -t 2.559652879 -Hs 44 -Hd -2 -Ni 44 -Nx 0.00 -Ny 0.00 -Nz 0.00 -Ne -1.000000 -Nl RTR -Nw --- -Ma 0 -Md ffffffff -Ms 2a -Mt 800 -Is 42.255 -Id -1.255 -It AODV -Il 48 -If 0 -Ii 0 -Iv 29 -P aodv -Pt 0x2 -Ph 2 -Pb 1 -Pd 2 -Pds 0 -Ps 1 -Pss 4 -Pc REQUEST 
r -t 2.559652879 -Hs 45 -Hd -2 -Ni 45 -Nx 0.00 -Ny 0.00 -Nz 0.00 -Ne -1.000000 -Nl RTR -Nw --- -Ma 0 -Md ffffffff -Ms 2a -Mt 800 -Is 42.255 -Id -1.255 -It AODV -Il 48 -If 0 -Ii 0 -Iv 29 -P aodv -Pt 0x2 -Ph 2 -Pb 1 -Pd 2 -Pds 0 -Ps 1 -Pss 4 -Pc REQUEST 
r -t 2.559652879 -Hs 46 -Hd -2 -Ni 46 -Nx 0.00 -Ny 0.00 -Nz 0.00 -Ne -1.000000 -Nl RTR -Nw --- -Ma 0 -Md ffffffff -Ms 2a -Mt 800 -Is 42.255 -Id -1.255 -It AODV -Il 48 -If 0 -Ii 0 -Iv 29 -P aodv -Pt 0x2 -Ph 2 -Pb 1 -Pd 2 -Pds 0 -Ps 1 -Pss 4 -Pc REQUEST 
r -t 2.559652879 -Hs 47 -Hd -2 -Ni 47 -Nx 0.00 -Ny 0.00 -Nz 0.00 -Ne -1.000000 -Nl RTR -Nw --- -Ma 0 -Md ffffffff -Ms 2a -Mt 800 -Is 42.255 -Id -1.255 -It AODV -Il 48 -If 0 -Ii 0 -Iv 29 -P aodv -Pt 0x2 -Ph 2 -Pb 1 -Pd 2 -Pds 0 -Ps 1 -Pss 4 -Pc REQUEST 
r -t 2.559652879 -Hs 48 -Hd -2 -Ni 48 -Nx 0.00 -Ny 0.00 -Nz 0.00 -Ne -1.000000 -Nl RTR -Nw --- -Ma 0 -Md ffffffff -Ms 2a -Mt 800 -Is 42.255 -Id -1.255 -It AODV -Il 48 -If 0 -Ii 0 -Iv 29 -P aodv -Pt 0x2 -Ph 2 -Pb 1 -Pd 2 -Pds 0 -Ps 1 -Pss 4 -Pc REQUEST 
r -t 2.559652879 -Hs 49 -Hd -2 -Ni 49 -Nx 0.00 -Ny 0.00 -Nz 0.00 -Ne -1.000000 -Nl RTR -Nw --- -Ma 0 -Md ffffffff -Ms 2a -Mt 800 -Is 42.255 -Id -1.255 -It AODV -Il 48 -If 0 -Ii 0 -Iv 29 -P aodv -Pt 0x2 -Ph 2 -Pb 1 -Pd 2 -Pds 0 -Ps 1 -Pss 4 -Pc REQUEST 
s -t 2.559700531 -Hs 37 -Hd -2 -Ni 37 -Nx 0.00 -Ny 0.00 -Nz 0.00 -Ne -1.000000 -Nl RTR -Nw --- -Ma 0 -Md ffffffff -Ms 1 -Mt 800 -Is 37.255 -Id -1.255 -It AODV -Il 48 -If 0 -Ii 0 -Iv 29 -P aodv -Pt 0x2 -Ph 2 -Pb 1 -Pd 2 -Pds 0 -Ps 1 -Pss 4 -Pc REQUEST 
s -t 2.559998473 -Hs 28 -Hd -2 -Ni 28 -Nx 0.00 -Ny 0.00 -Nz 0.00 -Ne -1.000000 -Nl RTR -Nw --- -Ma 0 -Md ffffffff -Ms 1 -Mt 800 -Is 28.255 -Id -1.255 -It AODV -Il 48 -If 0 -Ii 0 -Iv 29 -P aodv -Pt 0x2 -Ph 2 -Pb 1 -Pd 2 -Pds 0 -Ps 1 -Pss 4 -Pc REQUEST 
s -t 2.560172896 -Hs 7 -Hd -2 -Ni 7 -Nx 0.00 -Ny 0.00 -Nz 0.00 -Ne -1.000000 -Nl RTR -Nw --- -Ma 0 -Md ffffffff -Ms 1 -Mt 800 -Is 7.255 -Id -1.255 -It AODV -Il 48 -If 0 -Ii 0 -Iv 29 -P aodv -Pt 0x2 -Ph 2 -Pb 1 -Pd 2 -Pds 0 -Ps 1 -Pss 4 -Pc REQUEST 
s -t 2.560239135 -Hs 29 -Hd -2 -Ni 29 -Nx 0.00 -Ny 0.00 -Nz 0.00 -Ne -1.000000 -Nl RTR -Nw --- -Ma 0 -Md ffffffff -Ms 1 -Mt 800 -Is 29.255 -Id -1.255 -It AODV -Il 48 -If 0 -Ii 0 -Iv 29 -P aodv -Pt 0x2 -Ph 2 -Pb 1 -Pd 2 -Pds 0 -Ps 1 -Pss 4 -Pc REQUEST 
s -t 2.560396816 -Hs 48 -Hd -2 -Ni 48 -Nx 0.00 -Ny 0.00 -Nz 0.00 -Ne -1.000000 -Nl RTR -Nw --- -Ma 0 -Md ffffffff -Ms 1 -Mt 800 -Is 48.255 -Id -1.255 -It AODV -Il 48 -If 0 -Ii 0 -Iv 29 -P aodv -Pt 0x2 -Ph 2 -Pb 1 -Pd 2 -Pds 0 -Ps 1 -Pss 4 -Pc REQUEST 
s -t 2.560407758 -Hs 21 -Hd -2 -Ni 21 -Nx 0.00 -Ny 0.00 -Nz 0.00 -Ne -1.000000 -Nl RTR -Nw --- -Ma 0 -Md ffffffff -Ms 1 -Mt 800 -Is 21.255 -Id -1.255 -It AODV -Il 48 -If 0 -Ii 0 -Iv 29 -P aodv -Pt 0x2 -Ph 2 -Pb 1 -Pd 2 -Pds 0 -Ps 1 -Pss 4 -Pc REQUEST 